# vtk DataFile Version 3.1
# Written by create_patchy_tetrahedron.py
ASCII
DATASET UNSTRUCTURED_GRID
POINTS 873 FLOAT
	 0.000000 	 0.000000 	 0.300000
	 0.244949 	 -0.141421 	 -0.100000
	 0.000000 	 0.282843 	 -0.100000
	 -0.244949 	 -0.141421 	 -0.100000
	 0.000000 	 -0.000000 	 0.300000
	 -0.021897 	 -0.132124 	 0.533118
	 -0.029931 	 -0.131136 	 0.532975
	 -0.017466 	 -0.132669 	 0.533197
	 -0.004380 	 -0.134068 	 0.533068
	 -0.000000 	 -0.134537 	 0.533025
	 -0.055354 	 -0.122284 	 0.533047
	 -0.058359 	 -0.121183 	 0.532966
	 -0.051271 	 -0.123780 	 0.533158
	 -0.038963 	 -0.128071 	 0.533132
	 -0.034713 	 -0.129553 	 0.533123
	 -0.066938 	 -0.115939 	 0.533183
	 -0.070766 	 -0.113516 	 0.533156
	 -0.081762 	 -0.106554 	 0.533079
	 -0.083872 	 -0.105172 	 0.532995
	 -0.105172 	 -0.083872 	 0.532995
	 -0.085153 	 -0.103911 	 0.533020
	 -0.094606 	 -0.094606 	 0.533202
	 -0.097764 	 -0.091398 	 0.533140
	 -0.121183 	 -0.058359 	 0.532966
	 -0.106554 	 -0.081762 	 0.533079
	 -0.108940 	 -0.077993 	 0.533105
	 -0.115939 	 -0.066938 	 0.533183
	 -0.118241 	 -0.063172 	 0.533087
	 -0.123780 	 -0.051271 	 0.533158
	 -0.125269 	 -0.047000 	 0.533149
	 -0.129553 	 -0.034713 	 0.533123
	 -0.130895 	 -0.030660 	 0.532998
	 -0.131136 	 -0.029931 	 0.532975
	 -0.134537 	 0.000000 	 0.533025
	 -0.132669 	 -0.017466 	 0.533197
	 -0.133150 	 -0.012968 	 0.533153
	 -0.131136 	 0.029931 	 0.532975
	 -0.134068 	 0.004380 	 0.533068
	 -0.132669 	 0.017466 	 0.533197
	 -0.132124 	 0.021897 	 0.533118
	 -0.121183 	 0.058359 	 0.532966
	 -0.129553 	 0.034713 	 0.533123
	 -0.128071 	 0.038963 	 0.533132
	 -0.123780 	 0.051271 	 0.533158
	 -0.122284 	 0.055354 	 0.533047
	 -0.115939 	 0.066938 	 0.533183
	 -0.113516 	 0.070766 	 0.533156
	 -0.106554 	 0.081762 	 0.533079
	 -0.105172 	 0.083872 	 0.532995
	 -0.083872 	 0.105172 	 0.532995
	 -0.103911 	 0.085153 	 0.533020
	 -0.094606 	 0.094606 	 0.533202
	 -0.091398 	 0.097764 	 0.533140
	 -0.063172 	 0.118241 	 0.533087
	 -0.058359 	 0.121183 	 0.532966
	 -0.066938 	 0.115939 	 0.533183
	 -0.077993 	 0.108940 	 0.533105
	 -0.081762 	 0.106554 	 0.533079
	 -0.051271 	 0.123780 	 0.533158
	 -0.047000 	 0.125269 	 0.533149
	 -0.034713 	 0.129553 	 0.533123
	 -0.030660 	 0.130895 	 0.532998
	 -0.029931 	 0.131136 	 0.532975
	 -0.000000 	 0.134537 	 0.533025
	 -0.017466 	 0.132669 	 0.533197
	 -0.012968 	 0.133150 	 0.533153
	 0.021897 	 0.132124 	 0.533118
	 0.029931 	 0.131136 	 0.532975
	 0.017466 	 0.132669 	 0.533197
	 0.004380 	 0.134068 	 0.533068
	 0.055354 	 0.122284 	 0.533047
	 0.058359 	 0.121183 	 0.532966
	 0.051271 	 0.123780 	 0.533158
	 0.038963 	 0.128071 	 0.533132
	 0.034713 	 0.129553 	 0.533123
	 0.066938 	 0.115939 	 0.533183
	 0.070766 	 0.113516 	 0.533156
	 0.081762 	 0.106554 	 0.533079
	 0.083872 	 0.105172 	 0.532995
	 0.097764 	 0.091398 	 0.533140
	 0.105172 	 0.083872 	 0.532995
	 0.094606 	 0.094606 	 0.533202
	 0.085153 	 0.103911 	 0.533020
	 0.121183 	 0.058359 	 0.532966
	 0.106554 	 0.081762 	 0.533079
	 0.108940 	 0.077993 	 0.533105
	 0.115939 	 0.066938 	 0.533183
	 0.118241 	 0.063172 	 0.533087
	 0.123780 	 0.051271 	 0.533158
	 0.125269 	 0.047000 	 0.533149
	 0.129553 	 0.034713 	 0.533123
	 0.130895 	 0.030660 	 0.532998
	 0.131136 	 0.029931 	 0.532975
	 0.134537 	 0.000000 	 0.533025
	 0.132669 	 0.017466 	 0.533197
	 0.133150 	 0.012968 	 0.533153
	 0.131136 	 -0.029931 	 0.532975
	 0.134068 	 -0.004380 	 0.533068
	 0.132669 	 -0.017466 	 0.533197
	 0.132124 	 -0.021897 	 0.533118
	 0.121183 	 -0.058359 	 0.532966
	 0.129553 	 -0.034713 	 0.533123
	 0.128071 	 -0.038963 	 0.533132
	 0.123780 	 -0.051271 	 0.533158
	 0.122284 	 -0.055354 	 0.533047
	 0.115939 	 -0.066938 	 0.533183
	 0.113516 	 -0.070766 	 0.533156
	 0.106554 	 -0.081762 	 0.533079
	 0.105172 	 -0.083872 	 0.532995
	 0.083872 	 -0.105172 	 0.532995
	 0.103911 	 -0.085153 	 0.533020
	 0.094606 	 -0.094606 	 0.533202
	 0.091398 	 -0.097764 	 0.533140
	 0.063172 	 -0.118241 	 0.533087
	 0.058359 	 -0.121183 	 0.532966
	 0.066938 	 -0.115939 	 0.533183
	 0.077993 	 -0.108940 	 0.533105
	 0.081762 	 -0.106554 	 0.533079
	 0.051271 	 -0.123780 	 0.533158
	 0.047000 	 -0.125269 	 0.533149
	 0.034713 	 -0.129553 	 0.533123
	 0.030660 	 -0.130895 	 0.532998
	 0.029931 	 -0.131136 	 0.532975
	 0.017466 	 -0.132669 	 0.533197
	 0.012968 	 -0.133150 	 0.533153
	 0.036736 	 0.000000 	 0.548772
	 0.036422 	 0.004795 	 0.548772
	 0.000000 	 0.000000 	 0.550000
	 0.035484 	 0.009508 	 0.548772
	 0.033940 	 0.014058 	 0.548772
	 0.031814 	 0.018368 	 0.548772
	 0.029145 	 0.022363 	 0.548772
	 0.025976 	 0.025976 	 0.548772
	 0.022363 	 0.029145 	 0.548772
	 0.018368 	 0.031814 	 0.548772
	 0.014058 	 0.033940 	 0.548772
	 0.009508 	 0.035484 	 0.548772
	 0.004795 	 0.036422 	 0.548772
	 0.000000 	 0.036736 	 0.548772
	 -0.004795 	 0.036422 	 0.548772
	 -0.009508 	 0.035484 	 0.548772
	 -0.014058 	 0.033940 	 0.548772
	 -0.018368 	 0.031814 	 0.548772
	 -0.022363 	 0.029145 	 0.548772
	 -0.025976 	 0.025976 	 0.548772
	 -0.029145 	 0.022363 	 0.548772
	 -0.031814 	 0.018368 	 0.548772
	 -0.033940 	 0.014058 	 0.548772
	 -0.035484 	 0.009508 	 0.548772
	 -0.036422 	 0.004795 	 0.548772
	 -0.036736 	 0.000000 	 0.548772
	 -0.036422 	 -0.004795 	 0.548772
	 -0.035484 	 -0.009508 	 0.548772
	 -0.033940 	 -0.014058 	 0.548772
	 -0.031814 	 -0.018368 	 0.548772
	 -0.029145 	 -0.022363 	 0.548772
	 -0.025976 	 -0.025976 	 0.548772
	 -0.022363 	 -0.029145 	 0.548772
	 -0.018368 	 -0.031814 	 0.548772
	 -0.014058 	 -0.033940 	 0.548772
	 -0.009508 	 -0.035484 	 0.548772
	 -0.004795 	 -0.036422 	 0.548772
	 -0.000000 	 -0.036736 	 0.548772
	 0.004795 	 -0.036422 	 0.548772
	 0.009508 	 -0.035484 	 0.548772
	 0.014058 	 -0.033940 	 0.548772
	 0.018368 	 -0.031814 	 0.548772
	 0.022363 	 -0.029145 	 0.548772
	 0.025976 	 -0.025976 	 0.548772
	 0.029145 	 -0.022363 	 0.548772
	 0.031814 	 -0.018368 	 0.548772
	 0.033940 	 -0.014058 	 0.548772
	 0.035484 	 -0.009508 	 0.548772
	 0.036422 	 -0.004795 	 0.548772
	 0.073308 	 0.000000 	 0.545093
	 0.072681 	 0.009569 	 0.545093
	 0.108615 	 0.014299 	 0.538979
	 0.109552 	 0.000000 	 0.538979
	 0.134537 	 0.000000 	 0.533025
	 0.133150 	 0.012968 	 0.533153
	 0.132669 	 0.017466 	 0.533197
	 0.070810 	 0.018973 	 0.545093
	 0.105819 	 0.028354 	 0.538979
	 0.130895 	 0.030660 	 0.532998
	 0.131136 	 0.029931 	 0.532975
	 0.129553 	 0.034713 	 0.533123
	 0.067728 	 0.028054 	 0.545093
	 0.101213 	 0.041924 	 0.538979
	 0.125269 	 0.047000 	 0.533149
	 0.123780 	 0.051271 	 0.533158
	 0.063486 	 0.036654 	 0.545093
	 0.094875 	 0.054776 	 0.538979
	 0.118241 	 0.063172 	 0.533087
	 0.121183 	 0.058359 	 0.532966
	 0.115939 	 0.066938 	 0.533183
	 0.058159 	 0.044627 	 0.545093
	 0.086914 	 0.066691 	 0.538979
	 0.108940 	 0.077993 	 0.533105
	 0.106554 	 0.081762 	 0.533079
	 0.051836 	 0.051836 	 0.545093
	 0.077465 	 0.077465 	 0.538979
	 0.097764 	 0.091398 	 0.533140
	 0.105172 	 0.083872 	 0.532995
	 0.094606 	 0.094606 	 0.533202
	 0.044627 	 0.058159 	 0.545093
	 0.066691 	 0.086914 	 0.538979
	 0.085153 	 0.103911 	 0.533020
	 0.083872 	 0.105172 	 0.532995
	 0.081762 	 0.106554 	 0.533079
	 0.036654 	 0.063486 	 0.545093
	 0.054776 	 0.094875 	 0.538979
	 0.070766 	 0.113516 	 0.533156
	 0.066938 	 0.115939 	 0.533183
	 0.028054 	 0.067728 	 0.545093
	 0.041924 	 0.101213 	 0.538979
	 0.055354 	 0.122284 	 0.533047
	 0.058359 	 0.121183 	 0.532966
	 0.051271 	 0.123780 	 0.533158
	 0.018973 	 0.070810 	 0.545093
	 0.028354 	 0.105819 	 0.538979
	 0.038963 	 0.128071 	 0.533132
	 0.034713 	 0.129553 	 0.533123
	 0.009569 	 0.072681 	 0.545093
	 0.014299 	 0.108615 	 0.538979
	 0.021897 	 0.132124 	 0.533118
	 0.029931 	 0.131136 	 0.532975
	 0.017466 	 0.132669 	 0.533197
	 0.000000 	 0.073308 	 0.545093
	 0.000000 	 0.109552 	 0.538979
	 0.004380 	 0.134068 	 0.533068
	 -0.000000 	 0.134537 	 0.533025
	 -0.009569 	 0.072681 	 0.545093
	 -0.014299 	 0.108615 	 0.538979
	 -0.012968 	 0.133150 	 0.533153
	 -0.017466 	 0.132669 	 0.533197
	 -0.018973 	 0.070810 	 0.545093
	 -0.028354 	 0.105819 	 0.538979
	 -0.030660 	 0.130895 	 0.532998
	 -0.029931 	 0.131136 	 0.532975
	 -0.034713 	 0.129553 	 0.533123
	 -0.028054 	 0.067728 	 0.545093
	 -0.041924 	 0.101213 	 0.538979
	 -0.047000 	 0.125269 	 0.533149
	 -0.051271 	 0.123780 	 0.533158
	 -0.036654 	 0.063486 	 0.545093
	 -0.054776 	 0.094875 	 0.538979
	 -0.063172 	 0.118241 	 0.533087
	 -0.058359 	 0.121183 	 0.532966
	 -0.066938 	 0.115939 	 0.533183
	 -0.044627 	 0.058159 	 0.545093
	 -0.066691 	 0.086914 	 0.538979
	 -0.077993 	 0.108940 	 0.533105
	 -0.081762 	 0.106554 	 0.533079
	 -0.051836 	 0.051836 	 0.545093
	 -0.077465 	 0.077465 	 0.538979
	 -0.091398 	 0.097764 	 0.533140
	 -0.083872 	 0.105172 	 0.532995
	 -0.094606 	 0.094606 	 0.533202
	 -0.058159 	 0.044627 	 0.545093
	 -0.086914 	 0.066691 	 0.538979
	 -0.103911 	 0.085153 	 0.533020
	 -0.105172 	 0.083872 	 0.532995
	 -0.106554 	 0.081762 	 0.533079
	 -0.063486 	 0.036654 	 0.545093
	 -0.094875 	 0.054776 	 0.538979
	 -0.113516 	 0.070766 	 0.533156
	 -0.115939 	 0.066938 	 0.533183
	 -0.067728 	 0.028054 	 0.545093
	 -0.101213 	 0.041924 	 0.538979
	 -0.122284 	 0.055354 	 0.533047
	 -0.121183 	 0.058359 	 0.532966
	 -0.123780 	 0.051271 	 0.533158
	 -0.070810 	 0.018973 	 0.545093
	 -0.105819 	 0.028354 	 0.538979
	 -0.128071 	 0.038963 	 0.533132
	 -0.129553 	 0.034713 	 0.533123
	 -0.072681 	 0.009569 	 0.545093
	 -0.108615 	 0.014299 	 0.538979
	 -0.132124 	 0.021897 	 0.533118
	 -0.131136 	 0.029931 	 0.532975
	 -0.132669 	 0.017466 	 0.533197
	 -0.073308 	 0.000000 	 0.545093
	 -0.109552 	 0.000000 	 0.538979
	 -0.134068 	 0.004380 	 0.533068
	 -0.134537 	 0.000000 	 0.533025
	 -0.072681 	 -0.009569 	 0.545093
	 -0.108615 	 -0.014299 	 0.538979
	 -0.133150 	 -0.012968 	 0.533153
	 -0.132669 	 -0.017466 	 0.533197
	 -0.070810 	 -0.018973 	 0.545093
	 -0.105819 	 -0.028354 	 0.538979
	 -0.130895 	 -0.030660 	 0.532998
[...]
CELL_DATA 1066
COLOR_SCALARS faceColor 4
0.940 0.600 0.690 1.000
0.940 0.600 0.690 1.000
0.940 0.600 0.690 1.000
0.940 0.600 0.690 1.000
0.500 0.720 0.930 1.000
0.500 0.720 0.930 1.000
0.500 0.720 0.930 1.000
0.500 0.720 0.930 1.000
0.500 0.720 0.930 1.000
0.500 0.720 0.930 1.000
0.500 0.720 0.930 1.000
0.500 0.720 0.930 1.000
0.500 0.720 0.930 1.000
0.500 0.720 0.930 1.000
0.500 0.720 0.930 1.000
0.500 0.720 0.930 1.000
0.500 0.720 0.930 1.000
0.500 0.720 0.930 1.000
0.500 0.720 0.930 1.000
0.500 0.720 0.930 1.000
0.500 0.720 0.930 1.000
0.500 0.720 0.930 1.000
0.500 0.720 0.930 1.000
0.500 0.720 0.930 1.000
0.500 0.720 0.930 1.000
0.500 0.720 0.930 1.000
0.500 0.720 0.930 1.000
0.500 0.720 0.930 1.000
0.500 0.720 0.930 1.000
0.500 0.720 0.930 1.000
0.500 0.720 0.930 1.000
0.500 0.720 0.930 1.000
0.500 0.720 0.930 1.000
0.500 0.720 0.930 1.000
0.500 0.720 0.930 1.000
0.500 0.720 0.930 1.000
0.500 0.720 0.930 1.000
0.500 0.720 0.930 1.000
0.500 0.720 0.930 1.000
0.500 0.720 0.930 1.000
0.500 0.720 0.930 1.000
0.500 0.720 0.930 1.000
0.500 0.720 0.930 1.000
0.500 0.720 0.930 1.000
0.500 0.720 0.930 1.000
0.500 0.720 0.930 1.000
0.500 0.720 0.930 1.000
0.500 0.720 0.930 1.000
0.500 0.720 0.930 1.000
0.500 0.720 0.930 1.000
0.500 0.720 0.930 1.000
0.500 0.720 0.930 1.000
0.500 0.720 0.930 1.000
0.500 0.720 0.930 1.000
0.500 0.720 0.930 1.000
0.500 0.720 0.930 1.000
0.500 0.720 0.930 1.000
0.500 0.720 0.930 1.000
0.500 0.720 0.930 1.000
0.500 0.720 0.930 1.000
0.500 0.720 0.930 1.000
0.500 0.720 0.930 1.000
0.500 0.720 0.930 1.000
0.500 0.720 0.930 1.000
0.500 0.720 0.930 1.000
0.500 0.720 0.930 1.000
0.500 0.720 0.930 1.000
0.500 0.720 0.930 1.000
0.500 0.720 0.930 1.000
0.500 0.720 0.930 1.000
0.500 0.720 0.930 1.000
0.500 0.720 0.930 1.000
0.500 0.720 0.930 1.000
0.500 0.720 0.930 1.000
0.500 0.720 0.930 1.000
0.500 0.720 0.930 1.000
0.500 0.720 0.930 1.000
0.500 0.720 0.930 1.000
0.500 0.720 0.930 1.000
0.500 0.720 0.930 1.000
0.500 0.720 0.930 1.000
0.500 0.720 0.930 1.000
0.500 0.720 0.930 1.000
0.500 0.720 0.930 1.000
0.500 0.720 0.930 1.000
0.500 0.720 0.930 1.000
0.500 0.720 0.930 1.000
0.500 0.720 0.930 1.000
0.500 0.720 0.930 1.000
0.500 0.720 0.930 1.000
0.500 0.720 0.930 1.000
0.500 0.720 0.930 1.000
0.500 0.720 0.930 1.000
0.500 0.720 0.930 1.000
0.500 0.720 0.930 1.000
0.500 0.720 0.930 1.000
0.500 0.720 0.930 1.000
0.500 0.720 0.930 1.000
0.500 0.720 0.930 1.000
0.500 0.720 0.930 1.000
0.500 0.720 0.930 1.000
0.500 0.720 0.930 1.000
0.500 0.720 0.930 1.000
0.500 0.720 0.930 1.000
0.500 0.720 0.930 1.000
0.500 0.720 0.930 1.000
0.500 0.720 0.930 1.000
0.500 0.720 0.930 1.000
0.500 0.720 0.930 1.000
0.500 0.720 0.930 1.000
0.500 0.720 0.930 1.000
0.500 0.720 0.930 1.000
0.500 0.720 0.930 1.000
0.500 0.720 0.930 1.000
0.500 0.720 0.930 1.000
0.500 0.720 0.930 1.000
0.500 0.720 0.930 1.000
0.500 0.720 0.930 1.000
0.500 0.720 0.930 1.000
0.500 0.720 0.930 1.000
0.500 0.720 0.930 1.000
0.500 0.720 0.930 1.000
0.500 0.720 0.930 1.000
0.500 0.720 0.930 1.000
0.500 0.720 0.930 1.000
0.500 0.720 0.930 1.000
0.500 0.720 0.930 1.000
0.500 0.720 0.930 1.000
0.500 0.720 0.930 1.000
0.500 0.720 0.930 1.000
0.500 0.720 0.930 1.000
0.500 0.720 0.930 1.000
0.500 0.720 0.930 1.000
0.500 0.720 0.930 1.000
0.500 0.720 0.930 1.000
0.500 0.720 0.930 1.000
0.500 0.720 0.930 1.000
0.500 0.720 0.930 1.000
0.500 0.720 0.930 1.000
0.500 0.720 0.930 1.000
0.500 0.720 0.930 1.000
0.500 0.720 0.930 1.000
0.500 0.720 0.930 1.000
0.500 0.720 0.930 1.000
0.500 0.720 0.930 1.000
0.500 0.720 0.930 1.000
0.500 0.720 0.930 1.000
0.500 0.720 0.930 1.000
0.500 0.720 0.930 1.000
0.500 0.720 0.930 1.000
0.500 0.720 0.930 1.000
0.500 0.720 0.930 1.000
0.500 0.720 0.930 1.000
0.500 0.720 0.930 1.000
0.500 0.720 0.930 1.000
0.500 0.720 0.930 1.000
0.500 0.720 0.930 1.000
0.500 0.720 0.930 1.000
0.500 0.720 0.930 1.000
0.500 0.720 0.930 1.000
0.500 0.720 0.930 1.000
0.500 0.720 0.930 1.000
0.500 0.720 0.930 1.000
0.500 0.720 0.930 1.000
0.500 0.720 0.930 1.000
0.500 0.720 0.930 1.000
0.500 0.720 0.930 1.000
0.500 0.720 0.930 1.000
0.500 0.720 0.930 1.000
0.500 0.720 0.930 1.000
0.500 0.720 0.930 1.000
0.500 0.720 0.930 1.000
0.500 0.720 0.930 1.000
0.500 0.720 0.930 1.000
0.500 0.720 0.930 1.000
0.500 0.720 0.930 1.000
0.500 0.720 0.930 1.000
0.500 0.720 0.930 1.000
0.500 0.720 0.930 1.000
0.500 0.720 0.930 1.000
0.500 0.720 0.930 1.000
0.500 0.720 0.930 1.000
0.500 0.720 0.930 1.000
0.500 0.720 0.930 1.000
0.500 0.720 0.930 1.000
0.500 0.720 0.930 1.000
0.500 0.720 0.930 1.000
0.500 0.720 0.930 1.000
0.500 0.720 0.930 1.000
0.500 0.720 0.930 1.000
0.500 0.720 0.930 1.000
0.500 0.720 0.930 1.000
0.500 0.720 0.930 1.000
0.500 0.720 0.930 1.000
0.500 0.720 0.930 1.000
0.500 0.720 0.930 1.000
0.500 0.720 0.930 1.000
0.500 0.720 0.930 1.000
0.500 0.720 0.930 1.000
0.500 0.720 0.930 1.000
0.500 0.720 0.930 1.000
0.500 0.720 0.930 1.000
0.500 0.720 0.930 1.000
0.500 0.720 0.930 1.000
0.500 0.720 0.930 1.000
0.500 0.720 0.930 1.000
0.500 0.720 0.930 1.000
0.500 0.720 0.930 1.000
0.500 0.720 0.930 1.000
0.500 0.720 0.930 1.000
0.500 0.720 0.930 1.000
0.500 0.720 0.930 1.000
0.500 0.720 0.930 1.000
0.500 0.720 0.930 1.000
0.500 0.720 0.930 1.000
0.500 0.720 0.930 1.000
0.500 0.720 0.930 1.000
0.500 0.720 0.930 1.000
0.500 0.720 0.930 1.000
0.500 0.720 0.930 1.000
0.500 0.720 0.930 1.000
0.500 0.720 0.930 1.000
0.500 0.720 0.930 1.000
0.500 0.720 0.930 1.000
0.500 0.720 0.930 1.000
0.500 0.720 0.930 1.000
0.500 0.720 0.930 1.000
0.500 0.720 0.930 1.000
0.500 0.720 0.930 1.000
0.500 0.720 0.930 1.000
0.500 0.720 0.930 1.000
0.500 0.720 0.930 1.000
0.500 0.720 0.930 1.000
0.500 0.720 0.930 1.000
0.500 0.720 0.930 1.000
0.500 0.720 0.930 1.000
0.500 0.720 0.930 1.000
0.500 0.720 0.930 1.000
0.500 0.720 0.930 1.000
0.500 0.720 0.930 1.000
0.500 0.720 0.930 1.000
0.500 0.720 0.930 1.000
0.500 0.720 0.930 1.000
0.500 0.720 0.930 1.000
0.500 0.720 0.930 1.000
0.500 0.720 0.930 1.000
0.500 0.720 0.930 1.000
0.500 0.720 0.930 1.000
0.500 0.720 0.930 1.000
0.500 0.720 0.930 1.000
0.500 0.720 0.930 1.000
0.500 0.720 0.930 1.000
0.500 0.720 0.930 1.000
0.500 0.720 0.930 1.000
0.500 0.720 0.930 1.000
0.500 0.720 0.930 1.000
0.500 0.720 0.930 1.000
0.500 0.720 0.930 1.000
0.500 0.720 0.930 1.000
0.500 0.720 0.930 1.000
0.500 0.720 0.930 1.000
0.500 0.720 0.930 1.000
0.500 0.720 0.930 1.000
0.500 0.720 0.930 1.000
0.500 0.720 0.930 1.000
0.500 0.720 0.930 1.000
0.500 0.720 0.930 1.000
0.500 0.720 0.930 1.000
0.500 0.720 0.930 1.000
0.500 0.720 0.930 1.000
0.500 0.720 0.930 1.000
0.500 0.720 0.930 1.000
0.500 0.720 0.930 1.000
0.500 0.720 0.930 1.000
0.500 0.720 0.930 1.000
0.500 0.720 0.930 1.000
0.500 0.720 0.930 1.000
0.500 0.720 0.930 1.000
0.500 0.720 0.930 1.000
0.500 0.720 0.930 1.000
0.500 0.720 0.930 1.000
0.500 0.720 0.930 1.000
0.500 0.720 0.930 1.000
0.500 0.720 0.930 1.000
0.500 0.720 0.930 1.000
0.500 0.720 0.930 1.000
0.500 0.720 0.930 1.000
0.500 0.720 0.930 1.000
0.500 0.720 0.930 1.000
0.500 0.720 0.930 1.000
0.500 0.720 0.930 1.000
0.500 0.720 0.930 1.000
0.500 0.720 0.930 1.000
0.500 0.720 0.930 1.000
0.500 0.720 0.930 1.000
0.500 0.720 0.930 1.000
0.500 0.720 0.930 1.000
0.500 0.720 0.930 1.000
0.500 0.720 0.930 1.000
0.500 0.720 0.930 1.000
0.500 0.720 0.930 1.000
0.500 0.720 0.930 1.000
0.500 0.720 0.930 1.000
0.500 0.720 0.930 1.000
0.500 0.720 0.930 1.000
0.500 0.720 0.930 1.000
0.500 0.720 0.930 1.000
0.500 0.720 0.930 1.000
0.500 0.720 0.930 1.000
0.500 0.720 0.930 1.000
0.500 0.720 0.930 1.000
0.500 0.720 0.930 1.000
0.500 0.720 0.930 1.000
0.500 0.720 0.930 1.000
0.500 0.720 0.930 1.000
0.500 0.720 0.930 1.000
0.500 0.720 0.930 1.000
0.500 0.720 0.930 1.000
0.500 0.720 0.930 1.000
0.500 0.720 0.930 1.000
0.500 0.720 0.930 1.000
0.500 0.720 0.930 1.000
0.500 0.720 0.930 1.000
0.500 0.720 0.930 1.000
0.500 0.720 0.930 1.000
0.500 0.720 0.930 1.000
0.500 0.720 0.930 1.000
0.500 0.720 0.930 1.000
0.500 0.720 0.930 1.000
0.500 0.720 0.930 1.000
0.500 0.720 0.930 1.000
0.500 0.720 0.930 1.000
0.500 0.720 0.930 1.000
0.500 0.720 0.930 1.000
0.500 0.720 0.930 1.000
0.500 0.720 0.930 1.000
0.500 0.720 0.930 1.000
0.500 0.720 0.930 1.000
0.500 0.720 0.930 1.000
0.500 0.720 0.930 1.000
0.500 0.720 0.930 1.000
0.500 0.720 0.930 1.000
0.500 0.720 0.930 1.000
0.500 0.720 0.930 1.000
0.500 0.720 0.930 1.000
0.500 0.720 0.930 1.000
0.500 0.720 0.930 1.000
0.500 0.720 0.930 1.000
0.500 0.720 0.930 1.000
0.500 0.720 0.930 1.000
0.500 0.720 0.930 1.000
0.500 0.720 0.930 1.000
0.500 0.720 0.930 1.000
0.500 0.720 0.930 1.000
0.500 0.720 0.930 1.000
0.500 0.720 0.930 1.000
0.500 0.720 0.930 1.000
0.500 0.720 0.930 1.000
0.500 0.720 0.930 1.000
0.500 0.720 0.930 1.000
0.500 0.720 0.930 1.000
0.500 0.720 0.930 1.000
0.500 0.720 0.930 1.000
0.500 0.720 0.930 1.000
0.500 0.720 0.930 1.000
0.500 0.720 0.930 1.000
0.500 0.720 0.930 1.000
0.500 0.720 0.930 1.000
0.500 0.720 0.930 1.000
0.500 0.720 0.930 1.000
0.500 0.720 0.930 1.000
0.500 0.720 0.930 1.000
0.500 0.720 0.930 1.000
0.500 0.720 0.930 1.000
0.500 0.720 0.930 1.000
0.500 0.720 0.930 1.000
0.500 0.720 0.930 1.000
0.500 0.720 0.930 1.000
0.500 0.720 0.930 1.000
0.500 0.720 0.930 1.000
0.500 0.720 0.930 1.000
0.500 0.720 0.930 1.000
0.500 0.720 0.930 1.000
0.500 0.720 0.930 1.000
0.500 0.720 0.930 1.000
0.500 0.720 0.930 1.000
0.500 0.720 0.930 1.000
0.500 0.720 0.930 1.000
0.500 0.720 0.930 1.000
0.500 0.720 0.930 1.000
0.500 0.720 0.930 1.000
0.500 0.720 0.930 1.000
0.500 0.720 0.930 1.000
0.500 0.720 0.930 1.000
0.500 0.720 0.930 1.000
0.500 0.720 0.930 1.000
0.500 0.720 0.930 1.000
0.500 0.720 0.930 1.000
0.500 0.720 0.930 1.000
0.500 0.720 0.930 1.000
0.500 0.720 0.930 1.000
0.500 0.720 0.930 1.000
0.500 0.720 0.930 1.000
0.500 0.720 0.930 1.000
0.500 0.720 0.930 1.000
0.500 0.720 0.930 1.000
0.500 0.720 0.930 1.000
0.500 0.720 0.930 1.000
0.500 0.720 0.930 1.000
0.500 0.720 0.930 1.000
0.500 0.720 0.930 1.000
0.500 0.720 0.930 1.000
0.500 0.720 0.930 1.000
0.500 0.720 0.930 1.000
0.500 0.720 0.930 1.000
0.500 0.720 0.930 1.000
0.500 0.720 0.930 1.000
0.500 0.720 0.930 1.000
0.500 0.720 0.930 1.000
0.500 0.720 0.930 1.000
0.500 0.720 0.930 1.000
0.500 0.720 0.930 1.000
0.500 0.720 0.930 1.000
0.500 0.720 0.930 1.000
0.500 0.720 0.930 1.000
0.500 0.720 0.930 1.000
0.500 0.720 0.930 1.000
0.500 0.720 0.930 1.000
0.500 0.720 0.930 1.000
0.500 0.720 0.930 1.000
0.500 0.720 0.930 1.000
0.500 0.720 0.930 1.000
0.500 0.720 0.930 1.000
0.500 0.720 0.930 1.000
0.500 0.720 0.930 1.000
0.500 0.720 0.930 1.000
0.500 0.720 0.930 1.000
0.500 0.720 0.930 1.000
0.500 0.720 0.930 1.000
0.500 0.720 0.930 1.000
0.500 0.720 0.930 1.000
0.500 0.720 0.930 1.000
0.500 0.720 0.930 1.000
0.500 0.720 0.930 1.000
0.500 0.720 0.930 1.000
0.500 0.720 0.930 1.000
0.500 0.720 0.930 1.000
0.500 0.720 0.930 1.000
0.500 0.720 0.930 1.000
0.500 0.720 0.930 1.000
0.500 0.720 0.930 1.000
0.500 0.720 0.930 1.000
0.500 0.720 0.930 1.000
0.500 0.720 0.930 1.000
0.500 0.720 0.930 1.000
0.500 0.720 0.930 1.000
0.500 0.720 0.930 1.000
0.500 0.720 0.930 1.000
0.500 0.720 0.930 1.000
0.500 0.720 0.930 1.000
0.500 0.720 0.930 1.000
0.500 0.720 0.930 1.000
0.500 0.720 0.930 1.000
0.500 0.720 0.930 1.000
0.500 0.720 0.930 1.000
0.500 0.720 0.930 1.000
0.500 0.720 0.930 1.000
0.500 0.720 0.930 1.000
0.500 0.720 0.930 1.000
0.500 0.720 0.930 1.000
0.500 0.720 0.930 1.000
0.500 0.720 0.930 1.000
0.500 0.720 0.930 1.000
0.500 0.720 0.930 1.000
0.500 0.720 0.930 1.000
0.500 0.720 0.930 1.000
0.500 0.720 0.930 1.000
0.500 0.720 0.930 1.000
0.500 0.720 0.930 1.000
0.500 0.720 0.930 1.000
0.500 0.720 0.930 1.000
0.500 0.720 0.930 1.000
0.500 0.720 0.930 1.000
0.500 0.720 0.930 1.000
0.500 0.720 0.930 1.000
0.500 0.720 0.930 1.000
0.500 0.720 0.930 1.000
0.500 0.720 0.930 1.000
0.500 0.720 0.930 1.000
0.500 0.720 0.930 1.000
0.500 0.720 0.930 1.000
0.500 0.720 0.930 1.000
0.500 0.720 0.930 1.000
0.500 0.720 0.930 1.000
0.500 0.720 0.930 1.000
0.500 0.720 0.930 1.000
0.500 0.720 0.930 1.000
0.500 0.720 0.930 1.000
0.500 0.720 0.930 1.000
0.500 0.720 0.930 1.000
0.500 0.720 0.930 1.000
0.500 0.720 0.930 1.000
0.500 0.720 0.930 1.000
0.500 0.720 0.930 1.000
0.500 0.720 0.930 1.000
0.500 0.720 0.930 1.000
0.500 0.720 0.930 1.000
0.500 0.720 0.930 1.000
0.500 0.720 0.930 1.000
0.500 0.720 0.930 1.000
0.500 0.720 0.930 1.000
0.500 0.720 0.930 1.000
0.500 0.720 0.930 1.000
0.500 0.720 0.930 1.000
0.500 0.720 0.930 1.000
0.500 0.720 0.930 1.000
0.500 0.720 0.930 1.000
0.500 0.720 0.930 1.000
0.500 0.720 0.930 1.000
0.500 0.720 0.930 1.000
0.500 0.720 0.930 1.000
0.500 0.720 0.930 1.000
0.500 0.720 0.930 1.000
0.500 0.720 0.930 1.000
0.500 0.720 0.930 1.000
0.500 0.720 0.930 1.000
0.500 0.720 0.930 1.000
0.500 0.720 0.930 1.000
0.500 0.720 0.930 1.000
0.500 0.720 0.930 1.000
0.500 0.720 0.930 1.000
0.500 0.720 0.930 1.000
0.500 0.720 0.930 1.000
0.500 0.720 0.930 1.000
0.500 0.720 0.930 1.000
0.500 0.720 0.930 1.000
0.500 0.720 0.930 1.000
0.500 0.720 0.930 1.000
0.500 0.720 0.930 1.000
0.500 0.720 0.930 1.000
0.500 0.720 0.930 1.000
0.500 0.720 0.930 1.000
0.500 0.720 0.930 1.000
0.500 0.720 0.930 1.000
0.500 0.720 0.930 1.000
0.500 0.720 0.930 1.000
0.500 0.720 0.930 1.000
0.500 0.720 0.930 1.000
0.500 0.720 0.930 1.000
0.500 0.720 0.930 1.000
0.500 0.720 0.930 1.000
0.500 0.720 0.930 1.000
0.500 0.720 0.930 1.000
0.500 0.720 0.930 1.000
0.500 0.720 0.930 1.000
0.500 0.720 0.930 1.000
0.500 0.720 0.930 1.000
0.500 0.720 0.930 1.000
0.500 0.720 0.930 1.000
0.500 0.720 0.930 1.000
0.500 0.720 0.930 1.000
0.500 0.720 0.930 1.000
0.500 0.720 0.930 1.000
0.500 0.720 0.930 1.000
0.500 0.720 0.930 1.000
0.500 0.720 0.930 1.000
0.500 0.720 0.930 1.000
0.500 0.720 0.930 1.000
0.500 0.720 0.930 1.000
0.500 0.720 0.930 1.000
0.500 0.720 0.930 1.000
0.500 0.720 0.930 1.000
0.500 0.720 0.930 1.000
0.500 0.720 0.930 1.000
0.500 0.720 0.930 1.000
0.500 0.720 0.930 1.000
0.500 0.720 0.930 1.000
0.500 0.720 0.930 1.000
0.500 0.720 0.930 1.000
0.500 0.720 0.930 1.000
0.500 0.720 0.930 1.000
0.500 0.720 0.930 1.000
0.500 0.720 0.930 1.000
0.500 0.720 0.930 1.000
0.500 0.720 0.930 1.000
0.500 0.720 0.930 1.000
0.500 0.720 0.930 1.000
0.500 0.720 0.930 1.000
0.500 0.720 0.930 1.000
0.500 0.720 0.930 1.000
0.500 0.720 0.930 1.000
0.500 0.720 0.930 1.000
0.500 0.720 0.930 1.000
0.500 0.720 0.930 1.000
0.500 0.720 0.930 1.000
0.500 0.720 0.930 1.000
0.500 0.720 0.930 1.000
0.500 0.720 0.930 1.000
0.500 0.720 0.930 1.000
0.500 0.720 0.930 1.000
0.500 0.720 0.930 1.000
0.500 0.720 0.930 1.000
0.500 0.720 0.930 1.000
0.500 0.720 0.930 1.000
0.500 0.720 0.930 1.000
0.500 0.720 0.930 1.000
0.500 0.720 0.930 1.000
0.500 0.720 0.930 1.000
0.500 0.720 0.930 1.000
0.500 0.720 0.930 1.000
0.500 0.720 0.930 1.000
0.500 0.720 0.930 1.000
0.500 0.720 0.930 1.000
0.500 0.720 0.930 1.000
0.500 0.720 0.930 1.000
0.500 0.720 0.930 1.000
0.500 0.720 0.930 1.000
0.500 0.720 0.930 1.000
0.500 0.720 0.930 1.000
0.500 0.720 0.930 1.000
0.500 0.720 0.930 1.000
0.500 0.720 0.930 1.000
0.500 0.720 0.930 1.000
0.500 0.720 0.930 1.000
0.500 0.720 0.930 1.000
0.500 0.720 0.930 1.000
0.500 0.720 0.930 1.000
0.500 0.720 0.930 1.000
0.500 0.720 0.930 1.000
0.500 0.720 0.930 1.000
0.500 0.720 0.930 1.000
0.500 0.720 0.930 1.000
0.500 0.720 0.930 1.000
0.500 0.720 0.930 1.000
0.500 0.720 0.930 1.000
0.500 0.720 0.930 1.000
0.500 0.720 0.930 1.000
0.500 0.720 0.930 1.000
0.500 0.720 0.930 1.000
0.500 0.720 0.930 1.000
0.500 0.720 0.930 1.000
0.500 0.720 0.930 1.000
0.500 0.720 0.930 1.000
0.500 0.720 0.930 1.000
0.500 0.720 0.930 1.000
0.500 0.720 0.930 1.000
0.500 0.720 0.930 1.000
0.500 0.720 0.930 1.000
0.500 0.720 0.930 1.000
0.500 0.720 0.930 1.000
0.500 0.720 0.930 1.000
0.500 0.720 0.930 1.000
0.500 0.720 0.930 1.000
0.500 0.720 0.930 1.000
0.500 0.720 0.930 1.000
0.500 0.720 0.930 1.000
0.500 0.720 0.930 1.000
0.500 0.720 0.930 1.000
0.500 0.720 0.930 1.000
0.500 0.720 0.930 1.000
0.500 0.720 0.930 1.000
0.500 0.720 0.930 1.000
0.500 0.720 0.930 1.000
0.500 0.720 0.930 1.000
0.500 0.720 0.930 1.000
0.500 0.720 0.930 1.000
0.500 0.720 0.930 1.000
0.500 0.720 0.930 1.000
0.500 0.720 0.930 1.000
0.500 0.720 0.930 1.000
0.500 0.720 0.930 1.000
0.500 0.720 0.930 1.000
0.500 0.720 0.930 1.000
0.500 0.720 0.930 1.000
0.500 0.720 0.930 1.000
0.500 0.720 0.930 1.000
0.500 0.720 0.930 1.000
0.500 0.720 0.930 1.000
0.500 0.720 0.930 1.000
0.500 0.720 0.930 1.000
0.500 0.720 0.930 1.000
0.500 0.720 0.930 1.000
0.500 0.720 0.930 1.000
0.500 0.720 0.930 1.000
0.500 0.720 0.930 1.000
0.500 0.720 0.930 1.000
0.500 0.720 0.930 1.000
0.500 0.720 0.930 1.000
0.500 0.720 0.930 1.000
0.500 0.720 0.930 1.000
0.500 0.720 0.930 1.000
0.500 0.720 0.930 1.000
0.500 0.720 0.930 1.000
0.500 0.720 0.930 1.000
0.500 0.720 0.930 1.000
0.500 0.720 0.930 1.000
0.500 0.720 0.930 1.000
0.500 0.720 0.930 1.000
0.500 0.720 0.930 1.000
0.500 0.720 0.930 1.000
0.500 0.720 0.930 1.000
0.500 0.720 0.930 1.000
0.500 0.720 0.930 1.000
0.500 0.720 0.930 1.000
0.500 0.720 0.930 1.000
0.500 0.720 0.930 1.000
0.500 0.720 0.930 1.000
0.500 0.720 0.930 1.000
0.500 0.720 0.930 1.000
0.500 0.720 0.930 1.000
0.500 0.720 0.930 1.000
0.500 0.720 0.930 1.000
0.500 0.720 0.930 1.000
0.500 0.720 0.930 1.000
0.500 0.720 0.930 1.000
0.500 0.720 0.930 1.000
0.500 0.720 0.930 1.000
0.500 0.720 0.930 1.000
0.500 0.720 0.930 1.000
0.500 0.720 0.930 1.000
0.500 0.720 0.930 1.000
0.500 0.720 0.930 1.000
0.500 0.720 0.930 1.000
0.500 0.720 0.930 1.000
0.500 0.720 0.930 1.000
0.500 0.720 0.930 1.000
0.500 0.720 0.930 1.000
0.500 0.720 0.930 1.000
0.500 0.720 0.930 1.000
0.500 0.720 0.930 1.000
0.500 0.720 0.930 1.000
0.500 0.720 0.930 1.000
0.500 0.720 0.930 1.000
0.500 0.720 0.930 1.000
0.500 0.720 0.930 1.000
0.500 0.720 0.930 1.000
0.500 0.720 0.930 1.000
0.500 0.720 0.930 1.000
0.500 0.720 0.930 1.000
0.500 0.720 0.930 1.000
0.500 0.720 0.930 1.000
0.500 0.720 0.930 1.000
0.500 0.720 0.930 1.000
0.500 0.720 0.930 1.000
0.500 0.720 0.930 1.000
0.500 0.720 0.930 1.000
0.500 0.720 0.930 1.000
0.500 0.720 0.930 1.000
0.500 0.720 0.930 1.000
0.500 0.720 0.930 1.000
0.500 0.720 0.930 1.000
0.500 0.720 0.930 1.000
0.500 0.720 0.930 1.000
0.500 0.720 0.930 1.000
0.500 0.720 0.930 1.000
0.500 0.720 0.930 1.000
0.500 0.720 0.930 1.000
0.500 0.720 0.930 1.000
0.500 0.720 0.930 1.000
0.500 0.720 0.930 1.000
0.500 0.720 0.930 1.000
0.500 0.720 0.930 1.000
0.500 0.720 0.930 1.000
0.500 0.720 0.930 1.000
0.500 0.720 0.930 1.000
0.500 0.720 0.930 1.000
0.500 0.720 0.930 1.000
0.500 0.720 0.930 1.000
0.500 0.720 0.930 1.000
0.500 0.720 0.930 1.000
0.500 0.720 0.930 1.000
0.500 0.720 0.930 1.000
0.500 0.720 0.930 1.000
0.500 0.720 0.930 1.000
0.500 0.720 0.930 1.000
0.500 0.720 0.930 1.000
0.500 0.720 0.930 1.000
0.500 0.720 0.930 1.000
0.500 0.720 0.930 1.000
0.500 0.720 0.930 1.000
0.500 0.720 0.930 1.000
0.500 0.720 0.930 1.000
0.500 0.720 0.930 1.000
0.500 0.720 0.930 1.000
0.500 0.720 0.930 1.000
0.500 0.720 0.930 1.000
0.500 0.720 0.930 1.000
0.500 0.720 0.930 1.000
0.500 0.720 0.930 1.000
0.500 0.720 0.930 1.000
0.500 0.720 0.930 1.000
0.500 0.720 0.930 1.000
0.500 0.720 0.930 1.000
0.500 0.720 0.930 1.000
0.500 0.720 0.930 1.000
0.500 0.720 0.930 1.000
0.500 0.720 0.930 1.000
0.500 0.720 0.930 1.000
0.500 0.720 0.930 1.000
0.500 0.720 0.930 1.000
0.500 0.720 0.930 1.000
0.500 0.720 0.930 1.000
0.500 0.720 0.930 1.000
0.500 0.720 0.930 1.000
0.500 0.720 0.930 1.000
0.500 0.720 0.930 1.000
0.500 0.720 0.930 1.000
0.500 0.720 0.930 1.000
0.500 0.720 0.930 1.000
0.500 0.720 0.930 1.000
0.500 0.720 0.930 1.000
0.500 0.720 0.930 1.000
0.500 0.720 0.930 1.000
0.500 0.720 0.930 1.000
0.500 0.720 0.930 1.000
0.500 0.720 0.930 1.000
0.500 0.720 0.930 1.000
0.500 0.720 0.930 1.000
0.500 0.720 0.930 1.000
0.500 0.720 0.930 1.000
0.500 0.720 0.930 1.000
0.500 0.720 0.930 1.000
0.500 0.720 0.930 1.000
0.500 0.720 0.930 1.000
0.500 0.720 0.930 1.000
0.500 0.720 0.930 1.000
0.500 0.720 0.930 1.000
0.500 0.720 0.930 1.000
0.500 0.720 0.930 1.000
0.500 0.720 0.930 1.000
0.500 0.720 0.930 1.000